TITLE = "3D data for static model"
VARIABLES =    "X","Y","Depth","Permeability, mD","Porosity, fraction" "Pressure, Psi","Water Saturation","Gas Saturation"
ZONE i =  31, j =  31, k =   2, DATAPACKING = BLOCK,
SOLUTIONTIME = 0.0
VARLOCATION=([4,5,6,7,8]=CELLCENTERED)

  0.0000E+00  3.0000E+00  6.0000E+00  9.0000E+00  1.2000E+01  1.5000E+01  1.8000E+01  2.1000E+01
  2.4000E+01  2.7000E+01  3.0000E+01  3.3000E+01  3.6000E+01  3.9000E+01  4.2000E+01  4.5000E+01
  4.8000E+01  5.1000E+01  5.4000E+01  5.7000E+01  6.0000E+01  6.3000E+01  6.6000E+01  6.9000E+01
  7.2000E+01  7.5000E+01  7.8000E+01  8.1000E+01  8.4000E+01  8.7000E+01  9.0000E+01  0.0000E+00
  3.0000E+00  6.0000E+00  9.0000E+00  1.2000E+01  1.5000E+01  1.8000E+01  2.1000E+01  2.4000E+01
  2.7000E+01  3.0000E+01  3.3000E+01  3.6000E+01  3.9000E+01  4.2000E+01  4.5000E+01  4.8000E+01
  5.1000E+01  5.4000E+01  5.7000E+01  6.0000E+01  6.3000E+01  6.6000E+01  6.9000E+01  7.2000E+01
  7.5000E+01  7.8000E+01  8.1000E+01  8.4000E+01  8.7000E+01  9.0000E+01  0.0000E+00  3.0000E+00
  6.0000E+00  9.0000E+00  1.2000E+01  1.5000E+01  1.8000E+01  2.1000E+01  2.4000E+01  2.7000E+01
  3.0000E+01  3.3000E+01  3.6000E+01  3.9000E+01  4.2000E+01  4.5000E+01  4.8000E+01  5.1000E+01
  5.4000E+01  5.7000E+01  6.0000E+01  6.3000E+01  6.6000E+01  6.9000E+01  7.2000E+01  7.5000E+01
  7.8000E+01  8.1000E+01  8.4000E+01  8.7000E+01  9.0000E+01  0.0000E+00  3.0000E+00  6.0000E+00
  9.0000E+00  1.2000E+01  1.5000E+01  1.8000E+01  2.1000E+01  2.4000E+01  2.7000E+01  3.0000E+01
  3.3000E+01  3.6000E+01  3.9000E+01  4.2000E+01  4.5000E+01  4.8000E+01  5.1000E+01  5.4000E+01
  5.7000E+01  6.0000E+01  6.3000E+01  6.6000E+01  6.9000E+01  7.2000E+01  7.5000E+01  7.8000E+01
  8.1000E+01  8.4000E+01  8.7000E+01  9.0000E+01  0.0000E+00  3.0000E+00  6.0000E+00  9.0000E+00
  1.2000E+01  1.5000E+01  1.8000E+01  2.1000E+01  2.4000E+01  2.7000E+01  3.0000E+01  3.3000E+01
  3.6000E+01  3.9000E+01  4.2000E+01  4.5000E+01  4.8000E+01  5.1000E+01  5.4000E+01  5.7000E+01
  6.0000E+01  6.3000E+01  6.6000E+01  6.9000E+01  7.2000E+01  7.5000E+01  7.8000E+01  8.1000E+01
  8.4000E+01  8.7000E+01  9.0000E+01  0.0000E+00  3.0000E+00  6.0000E+00  9.0000E+00  1.2000E+01
  1.5000E+01  1.8000E+01  2.1000E+01  2.4000E+01  2.7000E+01  3.0000E+01  3.3000E+01  3.6000E+01
  3.9000E+01  4.2000E+01  4.5000E+01  4.8000E+01  5.1000E+01  5.4000E+01  5.7000E+01  6.0000E+01
  6.3000E+01  6.6000E+01  6.9000E+01  7.2000E+01  7.5000E+01  7.8000E+01  8.1000E+01  8.4000E+01
  8.7000E+01  9.0000E+01  0.0000E+00  3.0000E+00  6.0000E+00  9.0000E+00  1.2000E+01  1.5000E+01
  1.8000E+01  2.1000E+01  2.4000E+01  2.7000E+01  3.0000E+01  3.3000E+01  3.6000E+01  3.9000E+01
  4.2000E+01  4.5000E+01  4.8000E+01  5.1000E+01  5.4000E+01  5.7000E+01  6.0000E+01  6.3000E+01
  6.6000E+01  6.9000E+01  7.2000E+01  7.5000E+01  7.8000E+01  8.1000E+01  8.4000E+01  8.7000E+01
  9.0000E+01  0.0000E+00  3.0000E+00  6.0000E+00  9.0000E+00  1.2000E+01  1.5000E+01  1.8000E+01
  2.1000E+01  2.4000E+01  2.7000E+01  3.0000E+01  3.3000E+01  3.6000E+01  3.9000E+01  4.2000E+01
  4.5000E+01  4.8000E+01  5.1000E+01  5.4000E+01  5.7000E+01  6.0000E+01  6.3000E+01  6.6000E+01
  6.9000E+01  7.2000E+01  7.5000E+01  7.8000E+01  8.1000E+01  8.4000E+01  8.7000E+01  9.0000E+01
  0.0000E+00  3.0000E+00  6.0000E+00  9.0000E+00  1.2000E+01  1.5000E+01  1.8000E+01  2.1000E+01
  2.4000E+01  2.7000E+01  3.0000E+01  3.3000E+01  3.6000E+01  3.9000E+01  4.2000E+01  4.5000E+01
  4.8000E+01  5.1000E+01  5.4000E+01  5.7000E+01  6.0000E+01  6.3000E+01  6.6000E+01  6.9000E+01
  7.2000E+01  7.5000E+01  7.8000E+01  8.1000E+01  8.4000E+01  8.7000E+01  9.0000E+01  0.0000E+00
  3.0000E+00  6.0000E+00  9.0000E+00  1.2000E+01  1.5000E+01  1.8000E+01  2.1000E+01  2.4000E+01
  2.7000E+01  3.0000E+01  3.3000E+01  3.6000E+01  3.9000E+01  4.2000E+01  4.5000E+01  4.8000E+01
  5.1000E+01  5.4000E+01  5.7000E+01  6.0000E+01  6.3000E+01  6.6000E+01  6.9000E+01  7.2000E+01
  7.5000E+01  7.8000E+01  8.1000E+01  8.4000E+01  8.7000E+01  9.0000E+01  0.0000E+00  3.0000E+00
  6.0000E+00  9.0000E+00  1.2000E+01  1.5000E+01  1.8000E+01  2.1000E+01  2.4000E+01  2.7000E+01
  3.0000E+01  3.3000E+01  3.6000E+01  3.9000E+01  4.2000E+01  4.5000E+01  4.8000E+01  5.1000E+01
  5.4000E+01  5.7000E+01  6.0000E+01  6.3000E+01  6.6000E+01  6.9000E+01  7.2000E+01  7.5000E+01
  7.8000E+01  8.1000E+01  8.4000E+01  8.7000E+01  9.0000E+01  0.0000E+00  3.0000E+00  6.0000E+00
  9.0000E+00  1.2000E+01  1.5000E+01  1.8000E+01  2.1000E+01  2.4000E+01  2.7000E+01  3.0000E+01
  3.3000E+01  3.6000E+01  3.9000E+01  4.2000E+01  4.5000E+01  4.8000E+01  5.1000E+01  5.4000E+01
  5.7000E+01  6.0000E+01  6.3000E+01  6.6000E+01  6.9000E+01  7.2000E+01  7.5000E+01  7.8000E+01
  8.1000E+01  8.4000E+01  8.7000E+01  9.0000E+01  0.0000E+00  3.0000E+00  6.0000E+00  9.0000E+00
  1.2000E+01  1.5000E+01  1.8000E+01  2.1000E+01  2.4000E+01  2.7000E+01  3.0000E+01  3.3000E+01
  3.6000E+01  3.9000E+01  4.2000E+01  4.5000E+01  4.8000E+01  5.1000E+01  5.4000E+01  5.7000E+01
  6.0000E+01  6.3000E+01  6.6000E+01  6.9000E+01  7.2000E+01  7.5000E+01  7.8000E+01  8.1000E+01
  8.4000E+01  8.7000E+01  9.0000E+01  0.0000E+00  3.0000E+00  6.0000E+00  9.0000E+00  1.2000E+01
  1.5000E+01  1.8000E+01  2.1000E+01  2.4000E+01  2.7000E+01  3.0000E+01  3.3000E+01  3.6000E+01
  3.9000E+01  4.2000E+01  4.5000E+01  4.8000E+01  5.1000E+01  5.4000E+01  5.7000E+01  6.0000E+01
  6.3000E+01  6.6000E+01  6.9000E+01  7.2000E+01  7.5000E+01  7.8000E+01  8.1000E+01  8.4000E+01
  8.7000E+01  9.0000E+01  0.0000E+00  3.0000E+00  6.0000E+00  9.0000E+00  1.2000E+01  1.5000E+01
  1.8000E+01  2.1000E+01  2.4000E+01  2.7000E+01  3.0000E+01  3.3000E+01  3.6000E+01  3.9000E+01
  4.2000E+01  4.5000E+01  4.8000E+01  5.1000E+01  5.4000E+01  5.7000E+01  6.0000E+01  6.3000E+01
  6.6000E+01  6.9000E+01  7.2000E+01  7.5000E+01  7.8000E+01  8.1000E+01  8.4000E+01  8.7000E+01
  9.0000E+01  0.0000E+00  3.0000E+00  6.0000E+00  9.0000E+00  1.2000E+01  1.5000E+01  1.8000E+01
  2.1000E+01  2.4000E+01  2.7000E+01  3.0000E+01  3.3000E+01  3.6000E+01  3.9000E+01  4.2000E+01
  4.5000E+01  4.8000E+01  5.1000E+01  5.4000E+01  5.7000E+01  6.0000E+01  6.3000E+01  6.6000E+01
  6.9000E+01  7.2000E+01  7.5000E+01  7.8000E+01  8.1000E+01  8.4000E+01  8.7000E+01  9.0000E+01
  0.0000E+00  3.0000E+00  6.0000E+00  9.0000E+00  1.2000E+01  1.5000E+01  1.8000E+01  2.1000E+01
  2.4000E+01  2.7000E+01  3.0000E+01  3.3000E+01  3.6000E+01  3.9000E+01  4.2000E+01  4.5000E+01
  4.8000E+01  5.1000E+01  5.4000E+01  5.7000E+01  6.0000E+01  6.3000E+01  6.6000E+01  6.9000E+01
  7.2000E+01  7.5000E+01  7.8000E+01  8.1000E+01  8.4000E+01  8.7000E+01  9.0000E+01  0.0000E+00
  3.0000E+00  6.0000E+00  9.0000E+00  1.2000E+01  1.5000E+01  1.8000E+01  2.1000E+01  2.4000E+01
  2.7000E+01  3.0000E+01  3.3000E+01  3.6000E+01  3.9000E+01  4.2000E+01  4.5000E+01  4.8000E+01
  5.1000E+01  5.4000E+01  5.7000E+01  6.0000E+01  6.3000E+01  6.6000E+01  6.9000E+01  7.2000E+01
  7.5000E+01  7.8000E+01  8.1000E+01  8.4000E+01  8.7000E+01  9.0000E+01  0.0000E+00  3.0000E+00
  6.0000E+00  9.0000E+00  1.2000E+01  1.5000E+01  1.8000E+01  2.1000E+01  2.4000E+01  2.7000E+01
  3.0000E+01  3.3000E+01  3.6000E+01  3.9000E+01  4.2000E+01  4.5000E+01  4.8000E+01  5.1000E+01
  5.4000E+01  5.7000E+01  6.0000E+01  6.3000E+01  6.6000E+01  6.9000E+01  7.2000E+01  7.5000E+01
  7.8000E+01  8.1000E+01  8.4000E+01  8.7000E+01  9.0000E+01  0.0000E+00  3.0000E+00  6.0000E+00
  9.0000E+00  1.2000E+01  1.5000E+01  1.8000E+01  2.1000E+01  2.4000E+01  2.7000E+01  3.0000E+01
  3.3000E+01  3.6000E+01  3.9000E+01  4.2000E+01  4.5000E+01  4.8000E+01  5.1000E+01  5.4000E+01
  5.7000E+01  6.0000E+01  6.3000E+01  6.6000E+01  6.9000E+01  7.2000E+01  7.5000E+01  7.8000E+01
  8.1000E+01  8.4000E+01  8.7000E+01  9.0000E+01  0.0000E+00  3.0000E+00  6.0000E+00  9.0000E+00
  1.2000E+01  1.5000E+01  1.8000E+01  2.1000E+01  2.4000E+01  2.7000E+01  3.0000E+01  3.3000E+01
  3.6000E+01  3.9000E+01  4.2000E+01  4.5000E+01  4.8000E+01  5.1000E+01  5.4000E+01  5.7000E+01
  6.0000E+01  6.3000E+01  6.6000E+01  6.9000E+01  7.2000E+01  7.5000E+01  7.8000E+01  8.1000E+01
  8.4000E+01  8.7000E+01  9.0000E+01  0.0000E+00  3.0000E+00  6.0000E+00  9.0000E+00  1.2000E+01
  1.5000E+01  1.8000E+01  2.1000E+01  2.4000E+01  2.7000E+01  3.0000E+01  3.3000E+01  3.6000E+01
  3.9000E+01  4.2000E+01  4.5000E+01  4.8000E+01  5.1000E+01  5.4000E+01  5.7000E+01  6.0000E+01
  6.3000E+01  6.6000E+01  6.9000E+01  7.2000E+01  7.5000E+01  7.8000E+01  8.1000E+01  8.4000E+01
  8.7000E+01  9.0000E+01  0.0000E+00  3.0000E+00  6.0000E+00  9.0000E+00  1.2000E+01  1.5000E+01
  1.8000E+01  2.1000E+01  2.4000E+01  2.7000E+01  3.0000E+01  3.3000E+01  3.6000E+01  3.9000E+01
  4.2000E+01  4.5000E+01  4.8000E+01  5.1000E+01  5.4000E+01  5.7000E+01  6.0000E+01  6.3000E+01
  6.6000E+01  6.9000E+01  7.2000E+01  7.5000E+01  7.8000E+01  8.1000E+01  8.4000E+01  8.7000E+01
  9.0000E+01  0.0000E+00  3.0000E+00  6.0000E+00  9.0000E+00  1.2000E+01  1.5000E+01  1.8000E+01
  2.1000E+01  2.4000E+01  2.7000E+01  3.0000E+01  3.3000E+01  3.6000E+01  3.9000E+01  4.2000E+01
  4.5000E+01  4.8000E+01  5.1000E+01  5.4000E+01  5.7000E+01  6.0000E+01  6.3000E+01  6.6000E+01
  6.9000E+01  7.2000E+01  7.5000E+01  7.8000E+01  8.1000E+01  8.4000E+01  8.7000E+01  9.0000E+01
  0.0000E+00  3.0000E+00  6.0000E+00  9.0000E+00  1.2000E+01  1.5000E+01  1.8000E+01  2.1000E+01
  2.4000E+01  2.7000E+01  3.0000E+01  3.3000E+01  3.6000E+01  3.9000E+01  4.2000E+01  4.5000E+01
  4.8000E+01  5.1000E+01  5.4000E+01  5.7000E+01  6.0000E+01  6.3000E+01  6.6000E+01  6.9000E+01
  7.2000E+01  7.5000E+01  7.8000E+01  8.1000E+01  8.4000E+01  8.7000E+01  9.0000E+01  0.0000E+00
  3.0000E+00  6.0000E+00  9.0000E+00  1.2000E+01  1.5000E+01  1.8000E+01  2.1000E+01  2.4000E+01
  2.7000E+01  3.0000E+01  3.3000E+01  3.6000E+01  3.9000E+01  4.2000E+01  4.5000E+01  4.8000E+01
  5.1000E+01  5.4000E+01  5.7000E+01  6.0000E+01  6.3000E+01  6.6000E+01  6.9000E+01  7.2000E+01
  7.5000E+01  7.8000E+01  8.1000E+01  8.4000E+01  8.7000E+01  9.0000E+01  0.0000E+00  3.0000E+00
  6.0000E+00  9.0000E+00  1.2000E+01  1.5000E+01  1.8000E+01  2.1000E+01  2.4000E+01  2.7000E+01
  3.0000E+01  3.3000E+01  3.6000E+01  3.9000E+01  4.2000E+01  4.5000E+01  4.8000E+01  5.1000E+01
  5.4000E+01  5.7000E+01  6.0000E+01  6.3000E+01  6.6000E+01  6.9000E+01  7.2000E+01  7.5000E+01
  7.8000E+01  8.1000E+01  8.4000E+01  8.7000E+01  9.0000E+01  0.0000E+00  3.0000E+00  6.0000E+00
  9.0000E+00  1.2000E+01  1.5000E+01  1.8000E+01  2.1000E+01  2.4000E+01  2.7000E+01  3.0000E+01
  3.3000E+01  3.6000E+01  3.9000E+01  4.2000E+01  4.5000E+01  4.8000E+01  5.1000E+01  5.4000E+01
  5.7000E+01  6.0000E+01  6.3000E+01  6.6000E+01  6.9000E+01  7.2000E+01  7.5000E+01  7.8000E+01
  8.1000E+01  8.4000E+01  8.7000E+01  9.0000E+01  0.0000E+00  3.0000E+00  6.0000E+00  9.0000E+00
  1.2000E+01  1.5000E+01  1.8000E+01  2.1000E+01  2.4000E+01  2.7000E+01  3.0000E+01  3.3000E+01
  3.6000E+01  3.9000E+01  4.2000E+01  4.5000E+01  4.8000E+01  5.1000E+01  5.4000E+01  5.7000E+01
  6.0000E+01  6.3000E+01  6.6000E+01  6.9000E+01  7.2000E+01  7.5000E+01  7.8000E+01  8.1000E+01
  8.4000E+01  8.7000E+01  9.0000E+01  0.0000E+00  3.0000E+00  6.0000E+00  9.0000E+00  1.2000E+01
  1.5000E+01  1.8000E+01  2.1000E+01  2.4000E+01  2.7000E+01  3.0000E+01  3.3000E+01  3.6000E+01
  3.9000E+01  4.2000E+01  4.5000E+01  4.8000E+01  5.1000E+01  5.4000E+01  5.7000E+01  6.0000E+01
  6.3000E+01  6.6000E+01  6.9000E+01  7.2000E+01  7.5000E+01  7.8000E+01  8.1000E+01  8.4000E+01
  8.7000E+01  9.0000E+01  0.0000E+00  3.0000E+00  6.0000E+00  9.0000E+00  1.2000E+01  1.5000E+01
  1.8000E+01  2.1000E+01  2.4000E+01  2.7000E+01  3.0000E+01  3.3000E+01  3.6000E+01  3.9000E+01
  4.2000E+01  4.5000E+01  4.8000E+01  5.1000E+01  5.4000E+01  5.7000E+01  6.0000E+01  6.3000E+01
  6.6000E+01  6.9000E+01  7.2000E+01  7.5000E+01  7.8000E+01  8.1000E+01  8.4000E+01  8.7000E+01
  9.0000E+01  0.0000E+00  3.0000E+00  6.0000E+00  9.0000E+00  1.2000E+01  1.5000E+01  1.8000E+01
  2.1000E+01  2.4000E+01  2.7000E+01  3.0000E+01  3.3000E+01  3.6000E+01  3.9000E+01  4.2000E+01
  4.5000E+01  4.8000E+01  5.1000E+01  5.4000E+01  5.7000E+01  6.0000E+01  6.3000E+01  6.6000E+01
  6.9000E+01  7.2000E+01  7.5000E+01  7.8000E+01  8.1000E+01  8.4000E+01  8.7000E+01  9.0000E+01
  0.0000E+00  3.0000E+00  6.0000E+00  9.0000E+00  1.2000E+01  1.5000E+01  1.8000E+01  2.1000E+01
  2.4000E+01  2.7000E+01  3.0000E+01  3.3000E+01  3.6000E+01  3.9000E+01  4.2000E+01  4.5000E+01
  4.8000E+01  5.1000E+01  5.4000E+01  5.7000E+01  6.0000E+01  6.3000E+01  6.6000E+01  6.9000E+01
  7.2000E+01  7.5000E+01  7.8000E+01  8.1000E+01  8.4000E+01  8.7000E+01  9.0000E+01  0.0000E+00
  3.0000E+00  6.0000E+00  9.0000E+00  1.2000E+01  1.5000E+01  1.8000E+01  2.1000E+01  2.4000E+01
  2.7000E+01  3.0000E+01  3.3000E+01  3.6000E+01  3.9000E+01  4.2000E+01  4.5000E+01  4.8000E+01
  5.1000E+01  5.4000E+01  5.7000E+01  6.0000E+01  6.3000E+01  6.6000E+01  6.9000E+01  7.2000E+01
  7.5000E+01  7.8000E+01  8.1000E+01  8.4000E+01  8.7000E+01  9.0000E+01  0.0000E+00  3.0000E+00
  6.0000E+00  9.0000E+00  1.2000E+01  1.5000E+01  1.8000E+01  2.1000E+01  2.4000E+01  2.7000E+01
  3.0000E+01  3.3000E+01  3.6000E+01  3.9000E+01  4.2000E+01  4.5000E+01  4.8000E+01  5.1000E+01
  5.4000E+01  5.7000E+01  6.0000E+01  6.3000E+01  6.6000E+01  6.9000E+01  7.2000E+01  7.5000E+01
  7.8000E+01  8.1000E+01  8.4000E+01  8.7000E+01  9.0000E+01  0.0000E+00  3.0000E+00  6.0000E+00
  9.0000E+00  1.2000E+01  1.5000E+01  1.8000E+01  2.1000E+01  2.4000E+01  2.7000E+01  3.0000E+01
  3.3000E+01  3.6000E+01  3.9000E+01  4.2000E+01  4.5000E+01  4.8000E+01  5.1000E+01  5.4000E+01
  5.7000E+01  6.0000E+01  6.3000E+01  6.6000E+01  6.9000E+01  7.2000E+01  7.5000E+01  7.8000E+01
  8.1000E+01  8.4000E+01  8.7000E+01  9.0000E+01  0.0000E+00  3.0000E+00  6.0000E+00  9.0000E+00
  1.2000E+01  1.5000E+01  1.8000E+01  2.1000E+01  2.4000E+01  2.7000E+01  3.0000E+01  3.3000E+01
  3.6000E+01  3.9000E+01  4.2000E+01  4.5000E+01  4.8000E+01  5.1000E+01  5.4000E+01  5.7000E+01
  6.0000E+01  6.3000E+01  6.6000E+01  6.9000E+01  7.2000E+01  7.5000E+01  7.8000E+01  8.1000E+01
  8.4000E+01  8.7000E+01  9.0000E+01  0.0000E+00  3.0000E+00  6.0000E+00  9.0000E+00  1.2000E+01
  1.5000E+01  1.8000E+01  2.1000E+01  2.4000E+01  2.7000E+01  3.0000E+01  3.3000E+01  3.6000E+01
  3.9000E+01  4.2000E+01  4.5000E+01  4.8000E+01  5.1000E+01  5.4000E+01  5.7000E+01  6.0000E+01
  6.3000E+01  6.6000E+01  6.9000E+01  7.2000E+01  7.5000E+01  7.8000E+01  8.1000E+01  8.4000E+01
  8.7000E+01  9.0000E+01  0.0000E+00  3.0000E+00  6.0000E+00  9.0000E+00  1.2000E+01  1.5000E+01
  1.8000E+01  2.1000E+01  2.4000E+01  2.7000E+01  3.0000E+01  3.3000E+01  3.6000E+01  3.9000E+01
  4.2000E+01  4.5000E+01  4.8000E+01  5.1000E+01  5.4000E+01  5.7000E+01  6.0000E+01  6.3000E+01
  6.6000E+01  6.9000E+01  7.2000E+01  7.5000E+01  7.8000E+01  8.1000E+01  8.4000E+01  8.7000E+01
  9.0000E+01  0.0000E+00  3.0000E+00  6.0000E+00  9.0000E+00  1.2000E+01  1.5000E+01  1.8000E+01
  2.1000E+01  2.4000E+01  2.7000E+01  3.0000E+01  3.3000E+01  3.6000E+01  3.9000E+01  4.2000E+01
  4.5000E+01  4.8000E+01  5.1000E+01  5.4000E+01  5.7000E+01  6.0000E+01  6.3000E+01  6.6000E+01
  6.9000E+01  7.2000E+01  7.5000E+01  7.8000E+01  8.1000E+01  8.4000E+01  8.7000E+01  9.0000E+01
  0.0000E+00  3.0000E+00  6.0000E+00  9.0000E+00  1.2000E+01  1.5000E+01  1.8000E+01  2.1000E+01
  2.4000E+01  2.7000E+01  3.0000E+01  3.3000E+01  3.6000E+01  3.9000E+01  4.2000E+01  4.5000E+01
  4.8000E+01  5.1000E+01  5.4000E+01  5.7000E+01  6.0000E+01  6.3000E+01  6.6000E+01  6.9000E+01
  7.2000E+01  7.5000E+01  7.8000E+01  8.1000E+01  8.4000E+01  8.7000E+01  9.0000E+01  0.0000E+00
  3.0000E+00  6.0000E+00  9.0000E+00  1.2000E+01  1.5000E+01  1.8000E+01  2.1000E+01  2.4000E+01
  2.7000E+01  3.0000E+01  3.3000E+01  3.6000E+01  3.9000E+01  4.2000E+01  4.5000E+01  4.8000E+01
  5.1000E+01  5.4000E+01  5.7000E+01  6.0000E+01  6.3000E+01  6.6000E+01  6.9000E+01  7.2000E+01
  7.5000E+01  7.8000E+01  8.1000E+01  8.4000E+01  8.7000E+01  9.0000E+01  0.0000E+00  3.0000E+00
  6.0000E+00  9.0000E+00  1.2000E+01  1.5000E+01  1.8000E+01  2.1000E+01  2.4000E+01  2.7000E+01
  3.0000E+01  3.3000E+01  3.6000E+01  3.9000E+01  4.2000E+01  4.5000E+01  4.8000E+01  5.1000E+01
  5.4000E+01  5.7000E+01  6.0000E+01  6.3000E+01  6.6000E+01  6.9000E+01  7.2000E+01  7.5000E+01
  7.8000E+01  8.1000E+01  8.4000E+01  8.7000E+01  9.0000E+01  0.0000E+00  3.0000E+00  6.0000E+00
  9.0000E+00  1.2000E+01  1.5000E+01  1.8000E+01  2.1000E+01  2.4000E+01  2.7000E+01  3.0000E+01
  3.3000E+01  3.6000E+01  3.9000E+01  4.2000E+01  4.5000E+01  4.8000E+01  5.1000E+01  5.4000E+01
  5.7000E+01  6.0000E+01  6.3000E+01  6.6000E+01  6.9000E+01  7.2000E+01  7.5000E+01  7.8000E+01
  8.1000E+01  8.4000E+01  8.7000E+01  9.0000E+01  0.0000E+00  3.0000E+00  6.0000E+00  9.0000E+00
  1.2000E+01  1.5000E+01  1.8000E+01  2.1000E+01  2.4000E+01  2.7000E+01  3.0000E+01  3.3000E+01
  3.6000E+01  3.9000E+01  4.2000E+01  4.5000E+01  4.8000E+01  5.1000E+01  5.4000E+01  5.7000E+01
  6.0000E+01  6.3000E+01  6.6000E+01  6.9000E+01  7.2000E+01  7.5000E+01  7.8000E+01  8.1000E+01
  8.4000E+01  8.7000E+01  9.0000E+01  0.0000E+00  3.0000E+00  6.0000E+00  9.0000E+00  1.2000E+01
  1.5000E+01  1.8000E+01  2.1000E+01  2.4000E+01  2.7000E+01  3.0000E+01  3.3000E+01  3.6000E+01
  3.9000E+01  4.2000E+01  4.5000E+01  4.8000E+01  5.1000E+01  5.4000E+01  5.7000E+01  6.0000E+01
  6.3000E+01  6.6000E+01  6.9000E+01  7.2000E+01  7.5000E+01  7.8000E+01  8.1000E+01  8.4000E+01
  8.7000E+01  9.0000E+01  0.0000E+00  3.0000E+00  6.0000E+00  9.0000E+00  1.2000E+01  1.5000E+01
  1.8000E+01  2.1000E+01  2.4000E+01  2.7000E+01  3.0000E+01  3.3000E+01  3.6000E+01  3.9000E+01
  4.2000E+01  4.5000E+01  4.8000E+01  5.1000E+01  5.4000E+01  5.7000E+01  6.0000E+01  6.3000E+01
  6.6000E+01  6.9000E+01  7.2000E+01  7.5000E+01  7.8000E+01  8.1000E+01  8.4000E+01  8.7000E+01
  9.0000E+01  0.0000E+00  3.0000E+00  6.0000E+00  9.0000E+00  1.2000E+01  1.5000E+01  1.8000E+01
  2.1000E+01  2.4000E+01  2.7000E+01  3.0000E+01  3.3000E+01  3.6000E+01  3.9000E+01  4.2000E+01
  4.5000E+01  4.8000E+01  5.1000E+01  5.4000E+01  5.7000E+01  6.0000E+01  6.3000E+01  6.6000E+01
  6.9000E+01  7.2000E+01  7.5000E+01  7.8000E+01  8.1000E+01  8.4000E+01  8.7000E+01  9.0000E+01
  0.0000E+00  3.0000E+00  6.0000E+00  9.0000E+00  1.2000E+01  1.5000E+01  1.8000E+01  2.1000E+01
  2.4000E+01  2.7000E+01  3.0000E+01  3.3000E+01  3.6000E+01  3.9000E+01  4.2000E+01  4.5000E+01
  4.8000E+01  5.1000E+01  5.4000E+01  5.7000E+01  6.0000E+01  6.3000E+01  6.6000E+01  6.9000E+01
  7.2000E+01  7.5000E+01  7.8000E+01  8.1000E+01  8.4000E+01  8.7000E+01  9.0000E+01  0.0000E+00
  3.0000E+00  6.0000E+00  9.0000E+00  1.2000E+01  1.5000E+01  1.8000E+01  2.1000E+01  2.4000E+01
  2.7000E+01  3.0000E+01  3.3000E+01  3.6000E+01  3.9000E+01  4.2000E+01  4.5000E+01  4.8000E+01
  5.1000E+01  5.4000E+01  5.7000E+01  6.0000E+01  6.3000E+01  6.6000E+01  6.9000E+01  7.2000E+01
  7.5000E+01  7.8000E+01  8.1000E+01  8.4000E+01  8.7000E+01  9.0000E+01  0.0000E+00  3.0000E+00
  6.0000E+00  9.0000E+00  1.2000E+01  1.5000E+01  1.8000E+01  2.1000E+01  2.4000E+01  2.7000E+01
  3.0000E+01  3.3000E+01  3.6000E+01  3.9000E+01  4.2000E+01  4.5000E+01  4.8000E+01  5.1000E+01
  5.4000E+01  5.7000E+01  6.0000E+01  6.3000E+01  6.6000E+01  6.9000E+01  7.2000E+01  7.5000E+01
  7.8000E+01  8.1000E+01  8.4000E+01  8.7000E+01  9.0000E+01  0.0000E+00  3.0000E+00  6.0000E+00
  9.0000E+00  1.2000E+01  1.5000E+01  1.8000E+01  2.1000E+01  2.4000E+01  2.7000E+01  3.0000E+01
  3.3000E+01  3.6000E+01  3.9000E+01  4.2000E+01  4.5000E+01  4.8000E+01  5.1000E+01  5.4000E+01
  5.7000E+01  6.0000E+01  6.3000E+01  6.6000E+01  6.9000E+01  7.2000E+01  7.5000E+01  7.8000E+01
  8.1000E+01  8.4000E+01  8.7000E+01  9.0000E+01  0.0000E+00  3.0000E+00  6.0000E+00  9.0000E+00
  1.2000E+01  1.5000E+01  1.8000E+01  2.1000E+01  2.4000E+01  2.7000E+01  3.0000E+01  3.3000E+01
  3.6000E+01  3.9000E+01  4.2000E+01  4.5000E+01  4.8000E+01  5.1000E+01  5.4000E+01  5.7000E+01
  6.0000E+01  6.3000E+01  6.6000E+01  6.9000E+01  7.2000E+01  7.5000E+01  7.8000E+01  8.1000E+01
  8.4000E+01  8.7000E+01  9.0000E+01  0.0000E+00  3.0000E+00  6.0000E+00  9.0000E+00  1.2000E+01
  1.5000E+01  1.8000E+01  2.1000E+01  2.4000E+01  2.7000E+01  3.0000E+01  3.3000E+01  3.6000E+01
  3.9000E+01  4.2000E+01  4.5000E+01  4.8000E+01  5.1000E+01  5.4000E+01  5.7000E+01  6.0000E+01
  6.3000E+01  6.6000E+01  6.9000E+01  7.2000E+01  7.5000E+01  7.8000E+01  8.1000E+01  8.4000E+01
  8.7000E+01  9.0000E+01  0.0000E+00  3.0000E+00  6.0000E+00  9.0000E+00  1.2000E+01  1.5000E+01
  1.8000E+01  2.1000E+01  2.4000E+01  2.7000E+01  3.0000E+01  3.3000E+01  3.6000E+01  3.9000E+01
  4.2000E+01  4.5000E+01  4.8000E+01  5.1000E+01  5.4000E+01  5.7000E+01  6.0000E+01  6.3000E+01
  6.6000E+01  6.9000E+01  7.2000E+01  7.5000E+01  7.8000E+01  8.1000E+01  8.4000E+01  8.7000E+01
  9.0000E+01  0.0000E+00  3.0000E+00  6.0000E+00  9.0000E+00  1.2000E+01  1.5000E+01  1.8000E+01
  2.1000E+01  2.4000E+01  2.7000E+01  3.0000E+01  3.3000E+01  3.6000E+01  3.9000E+01  4.2000E+01
  4.5000E+01  4.8000E+01  5.1000E+01  5.4000E+01  5.7000E+01  6.0000E+01  6.3000E+01  6.6000E+01
  6.9000E+01  7.2000E+01  7.5000E+01  7.8000E+01  8.1000E+01  8.4000E+01  8.7000E+01  9.0000E+01
  0.0000E+00  3.0000E+00  6.0000E+00  9.0000E+00  1.2000E+01  1.5000E+01  1.8000E+01  2.1000E+01
  2.4000E+01  2.7000E+01  3.0000E+01  3.3000E+01  3.6000E+01  3.9000E+01  4.2000E+01  4.5000E+01
  4.8000E+01  5.1000E+01  5.4000E+01  5.7000E+01  6.0000E+01  6.3000E+01  6.6000E+01  6.9000E+01
  7.2000E+01  7.5000E+01  7.8000E+01  8.1000E+01  8.4000E+01  8.7000E+01  9.0000E+01  0.0000E+00
  3.0000E+00  6.0000E+00  9.0000E+00  1.2000E+01  1.5000E+01  1.8000E+01  2.1000E+01  2.4000E+01
  2.7000E+01  3.0000E+01  3.3000E+01  3.6000E+01  3.9000E+01  4.2000E+01  4.5000E+01  4.8000E+01
  5.1000E+01  5.4000E+01  5.7000E+01  6.0000E+01  6.3000E+01  6.6000E+01  6.9000E+01  7.2000E+01
  7.5000E+01  7.8000E+01  8.1000E+01  8.4000E+01  8.7000E+01  9.0000E+01  0.0000E+00  3.0000E+00
  6.0000E+00  9.0000E+00  1.2000E+01  1.5000E+01  1.8000E+01  2.1000E+01  2.4000E+01  2.7000E+01
  3.0000E+01  3.3000E+01  3.6000E+01  3.9000E+01  4.2000E+01  4.5000E+01  4.8000E+01  5.1000E+01
  5.4000E+01  5.7000E+01  6.0000E+01  6.3000E+01  6.6000E+01  6.9000E+01  7.2000E+01  7.5000E+01
  7.8000E+01  8.1000E+01  8.4000E+01  8.7000E+01  9.0000E+01  0.0000E+00  3.0000E+00  6.0000E+00
  9.0000E+00  1.2000E+01  1.5000E+01  1.8000E+01  2.1000E+01  2.4000E+01  2.7000E+01  3.0000E+01
  3.3000E+01  3.6000E+01  3.9000E+01  4.2000E+01  4.5000E+01  4.8000E+01  5.1000E+01  5.4000E+01
  5.7000E+01  6.0000E+01  6.3000E+01  6.6000E+01  6.9000E+01  7.2000E+01  7.5000E+01  7.8000E+01
  8.1000E+01  8.4000E+01  8.7000E+01  9.0000E+01  0.0000E+00  3.0000E+00  6.0000E+00  9.0000E+00
  1.2000E+01  1.5000E+01  1.8000E+01  2.1000E+01  2.4000E+01  2.7000E+01  3.0000E+01  3.3000E+01
  3.6000E+01  3.9000E+01  4.2000E+01  4.5000E+01  4.8000E+01  5.1000E+01  5.4000E+01  5.7000E+01
  6.0000E+01  6.3000E+01  6.6000E+01  6.9000E+01  7.2000E+01  7.5000E+01  7.8000E+01  8.1000E+01
  8.4000E+01  8.7000E+01  9.0000E+01  0.0000E+00  3.0000E+00  6.0000E+00  9.0000E+00  1.2000E+01
  1.5000E+01  1.8000E+01  2.1000E+01  2.4000E+01  2.7000E+01  3.0000E+01  3.3000E+01  3.6000E+01
  3.9000E+01  4.2000E+01  4.5000E+01  4.8000E+01  5.1000E+01  5.4000E+01  5.7000E+01  6.0000E+01
  6.3000E+01  6.6000E+01  6.9000E+01  7.2000E+01  7.5000E+01  7.8000E+01  8.1000E+01  8.4000E+01
  8.7000E+01  9.0000E+01


  0.0000E+00  0.0000E+00  0.0000E+00  0.0000E+00  0.0000E+00  0.0000E+00  0.0000E+00  0.0000E+00
  0.0000E+00  0.0000E+00  0.0000E+00  0.0000E+00  0.0000E+00  0.0000E+00  0.0000E+00  0.0000E+00
  0.0000E+00  0.0000E+00  0.0000E+00  0.0000E+00  0.0000E+00  0.0000E+00  0.0000E+00  0.0000E+00
  0.0000E+00  0.0000E+00  0.0000E+00  0.0000E+00  0.0000E+00  0.0000E+00  0.0000E+00  3.0000E+00
  3.0000E+00  3.0000E+00  3.0000E+00  3.0000E+00  3.0000E+00  3.0000E+00  3.0000E+00  3.0000E+00
  3.0000E+00  3.0000E+00  3.0000E+00  3.0000E+00  3.0000E+00  3.0000E+00  3.0000E+00  3.0000E+00
  3.0000E+00  3.0000E+00  3.0000E+00  3.0000E+00  3.0000E+00  3.0000E+00  3.0000E+00  3.0000E+00
  3.0000E+00  3.0000E+00  3.0000E+00  3.0000E+00  3.0000E+00  3.0000E+00  6.0000E+00  6.0000E+00
  6.0000E+00  6.0000E+00  6.0000E+00  6.0000E+00  6.0000E+00  6.0000E+00  6.0000E+00  6.0000E+00
  6.0000E+00  6.0000E+00  6.0000E+00  6.0000E+00  6.0000E+00  6.0000E+00  6.0000E+00  6.0000E+00
  6.0000E+00  6.0000E+00  6.0000E+00  6.0000E+00  6.0000E+00  6.0000E+00  6.0000E+00  6.0000E+00
  6.0000E+00  6.0000E+00  6.0000E+00  6.0000E+00  6.0000E+00  9.0000E+00  9.0000E+00  9.0000E+00
  9.0000E+00  9.0000E+00  9.0000E+00  9.0000E+00  9.0000E+00  9.0000E+00  9.0000E+00  9.0000E+00
  9.0000E+00  9.0000E+00  9.0000E+00  9.0000E+00  9.0000E+00  9.0000E+00  9.0000E+00  9.0000E+00
  9.0000E+00  9.0000E+00  9.0000E+00  9.0000E+00  9.0000E+00  9.0000E+00  9.0000E+00  9.0000E+00
  9.0000E+00  9.0000E+00  9.0000E+00  9.0000E+00  1.2000E+01  1.2000E+01  1.2000E+01  1.2000E+01
  1.2000E+01  1.2000E+01  1.2000E+01  1.2000E+01  1.2000E+01  1.2000E+01  1.2000E+01  1.2000E+01
  1.2000E+01  1.2000E+01  1.2000E+01  1.2000E+01  1.2000E+01  1.2000E+01  1.2000E+01  1.2000E+01
  1.2000E+01  1.2000E+01  1.2000E+01  1.2000E+01  1.2000E+01  1.2000E+01  1.2000E+01  1.2000E+01
  1.2000E+01  1.2000E+01  1.2000E+01  1.5000E+01  1.5000E+01  1.5000E+01  1.5000E+01  1.5000E+01
  1.5000E+01  1.5000E+01  1.5000E+01  1.5000E+01  1.5000E+01  1.5000E+01  1.5000E+01  1.5000E+01
  1.5000E+01  1.5000E+01  1.5000E+01  1.5000E+01  1.5000E+01  1.5000E+01  1.5000E+01  1.5000E+01
  1.5000E+01  1.5000E+01  1.5000E+01  1.5000E+01  1.5000E+01  1.5000E+01  1.5000E+01  1.5000E+01
  1.5000E+01  1.5000E+01  1.8000E+01  1.8000E+01  1.8000E+01  1.8000E+01  1.8000E+01  1.8000E+01
  1.8000E+01  1.8000E+01  1.8000E+01  1.8000E+01  1.8000E+01  1.8000E+01  1.8000E+01  1.8000E+01
  1.8000E+01  1.8000E+01  1.8000E+01  1.8000E+01  1.8000E+01  1.8000E+01  1.8000E+01  1.8000E+01
  1.8000E+01  1.8000E+01  1.8000E+01  1.8000E+01  1.8000E+01  1.8000E+01  1.8000E+01  1.8000E+01
  1.8000E+01  2.1000E+01  2.1000E+01  2.1000E+01  2.1000E+01  2.1000E+01  2.1000E+01  2.1000E+01
  2.1000E+01  2.1000E+01  2.1000E+01  2.1000E+01  2.1000E+01  2.1000E+01  2.1000E+01  2.1000E+01
  2.1000E+01  2.1000E+01  2.1000E+01  2.1000E+01  2.1000E+01  2.1000E+01  2.1000E+01  2.1000E+01
  2.1000E+01  2.1000E+01  2.1000E+01  2.1000E+01  2.1000E+01  2.1000E+01  2.1000E+01  2.1000E+01
  2.4000E+01  2.4000E+01  2.4000E+01  2.4000E+01  2.4000E+01  2.4000E+01  2.4000E+01  2.4000E+01
  2.4000E+01  2.4000E+01  2.4000E+01  2.4000E+01  2.4000E+01  2.4000E+01  2.4000E+01  2.4000E+01
  2.4000E+01  2.4000E+01  2.4000E+01  2.4000E+01  2.4000E+01  2.4000E+01  2.4000E+01  2.4000E+01
  2.4000E+01  2.4000E+01  2.4000E+01  2.4000E+01  2.4000E+01  2.4000E+01  2.4000E+01  2.7000E+01
  2.7000E+01  2.7000E+01  2.7000E+01  2.7000E+01  2.7000E+01  2.7000E+01  2.7000E+01  2.7000E+01
  2.7000E+01  2.7000E+01  2.7000E+01  2.7000E+01  2.7000E+01  2.7000E+01  2.7000E+01  2.7000E+01
  2.7000E+01  2.7000E+01  2.7000E+01  2.7000E+01  2.7000E+01  2.7000E+01  2.7000E+01  2.7000E+01
  2.7000E+01  2.7000E+01  2.7000E+01  2.7000E+01  2.7000E+01  2.7000E+01  3.0000E+01  3.0000E+01
  3.0000E+01  3.0000E+01  3.0000E+01  3.0000E+01  3.0000E+01  3.0000E+01  3.0000E+01  3.0000E+01
  3.0000E+01  3.0000E+01  3.0000E+01  3.0000E+01  3.0000E+01  3.0000E+01  3.0000E+01  3.0000E+01
  3.0000E+01  3.0000E+01  3.0000E+01  3.0000E+01  3.0000E+01  3.0000E+01  3.0000E+01  3.0000E+01
  3.0000E+01  3.0000E+01  3.0000E+01  3.0000E+01  3.0000E+01  3.3000E+01  3.3000E+01  3.3000E+01
  3.3000E+01  3.3000E+01  3.3000E+01  3.3000E+01  3.3000E+01  3.3000E+01  3.3000E+01  3.3000E+01
  3.3000E+01  3.3000E+01  3.3000E+01  3.3000E+01  3.3000E+01  3.3000E+01  3.3000E+01  3.3000E+01
  3.3000E+01  3.3000E+01  3.3000E+01  3.3000E+01  3.3000E+01  3.3000E+01  3.3000E+01  3.3000E+01
  3.3000E+01  3.3000E+01  3.3000E+01  3.3000E+01  3.6000E+01  3.6000E+01  3.6000E+01  3.6000E+01
  3.6000E+01  3.6000E+01  3.6000E+01  3.6000E+01  3.6000E+01  3.6000E+01  3.6000E+01  3.6000E+01
  3.6000E+01  3.6000E+01  3.6000E+01  3.6000E+01  3.6000E+01  3.6000E+01  3.6000E+01  3.6000E+01
  3.6000E+01  3.6000E+01  3.6000E+01  3.6000E+01  3.6000E+01  3.6000E+01  3.6000E+01  3.6000E+01
  3.6000E+01  3.6000E+01  3.6000E+01  3.9000E+01  3.9000E+01  3.9000E+01  3.9000E+01  3.9000E+01
  3.9000E+01  3.9000E+01  3.9000E+01  3.9000E+01  3.9000E+01  3.9000E+01  3.9000E+01  3.9000E+01
  3.9000E+01  3.9000E+01  3.9000E+01  3.9000E+01  3.9000E+01  3.9000E+01  3.9000E+01  3.9000E+01
  3.9000E+01  3.9000E+01  3.9000E+01  3.9000E+01  3.9000E+01  3.9000E+01  3.9000E+01  3.9000E+01
  3.9000E+01  3.9000E+01  4.2000E+01  4.2000E+01  4.2000E+01  4.2000E+01  4.2000E+01  4.2000E+01
  4.2000E+01  4.2000E+01  4.2000E+01  4.2000E+01  4.2000E+01  4.2000E+01  4.2000E+01  4.2000E+01
  4.2000E+01  4.2000E+01  4.2000E+01  4.2000E+01  4.2000E+01  4.2000E+01  4.2000E+01  4.2000E+01
  4.2000E+01  4.2000E+01  4.2000E+01  4.2000E+01  4.2000E+01  4.2000E+01  4.2000E+01  4.2000E+01
  4.2000E+01  4.5000E+01  4.5000E+01  4.5000E+01  4.5000E+01  4.5000E+01  4.5000E+01  4.5000E+01
  4.5000E+01  4.5000E+01  4.5000E+01  4.5000E+01  4.5000E+01  4.5000E+01  4.5000E+01  4.5000E+01
  4.5000E+01  4.5000E+01  4.5000E+01  4.5000E+01  4.5000E+01  4.5000E+01  4.5000E+01  4.5000E+01
  4.5000E+01  4.5000E+01  4.5000E+01  4.5000E+01  4.5000E+01  4.5000E+01  4.5000E+01  4.5000E+01
  4.8000E+01  4.8000E+01  4.8000E+01  4.8000E+01  4.8000E+01  4.8000E+01  4.8000E+01  4.8000E+01
  4.8000E+01  4.8000E+01  4.8000E+01  4.8000E+01  4.8000E+01  4.8000E+01  4.8000E+01  4.8000E+01
  4.8000E+01  4.8000E+01  4.8000E+01  4.8000E+01  4.8000E+01  4.8000E+01  4.8000E+01  4.8000E+01
  4.8000E+01  4.8000E+01  4.8000E+01  4.8000E+01  4.8000E+01  4.8000E+01  4.8000E+01  5.1000E+01