TITLE = "3D data for static model"
VARIABLES =    "X","Y","Depth","Permeability, mD","Porosity, fraction" "Pressure, Psi","Water Saturation","Gas Saturation"
ZONE i =   4, j =   2, k =   4, DATAPACKING = BLOCK,
SOLUTIONTIME = 0.0
VARLOCATION=([4,5,6,7,8]=CELLCENTERED)

  0.0000E+00  8.8000E+01  1.7600E+02  2.6400E+02  0.0000E+00  8.8000E+01  1.7600E+02  2.6400E+02
  0.0000E+00  8.8000E+01  1.7600E+02  2.6400E+02  0.0000E+00  8.8000E+01  1.7600E+02  2.6400E+02
  0.0000E+00  8.8000E+01  1.7600E+02  2.6400E+02  0.0000E+00  8.8000E+01  1.7600E+02  2.6400E+02
  0.0000E+00  8.8000E+01  1.7600E+02  2.6400E+02  0.0000E+00  8.8000E+01  1.7600E+02  2.6400E+02


  0.0000E+00  0.0000E+00  0.0000E+00  0.0000E+00  8.8000E+01  8.8000E+01  8.8000E+01  8.8000E+01
  0.0000E+00  0.0000E+00  0.0000E+00  0.0000E+00  8.8000E+01  8.8000E+01  8.8000E+01  8.8000E+01
  0.0000E+00  0.0000E+00  0.0000E+00  0.0000E+00  8.8000E+01  8.8000E+01  8.8000E+01  8.8000E+01
  0.0000E+00  0.0000E+00  0.0000E+00  0.0000E+00  8.8000E+01  8.8000E+01  8.8000E+01  8.8000E+01


  2.6650E+03  2.6650E+03  2.6650E+03  2.6650E+03  2.6650E+03  2.6650E+03  2.6650E+03  2.6650E+03
  2.6950E+03  2.6950E+03  2.6950E+03  2.6950E+03  2.6950E+03  2.6950E+03  2.6950E+03  2.6950E+03
  2.7250E+03  2.7250E+03  2.7250E+03  2.7250E+03  2.7250E+03  2.7250E+03  2.7250E+03  2.7250E+03
  2.7550E+03  2.7550E+03  2.7550E+03  2.7550E+03  2.7550E+03  2.7550E+03  2.7550E+03  2.7550E+03


  1.7075E+03  1.5918E+03  1.8430E+03  1.8184E+03  1.6490E+03  1.5499E+03  1.4804E+03  1.4048E+03
  1.2948E+03


  2.0000E-01  2.0000E-01  2.0000E-01  2.0000E-01  2.0000E-01  2.0000E-01  2.0000E-01  2.0000E-01
  2.0000E-01


