TITLE = "3D data for static model"
VARIABLES =    "X","Y","Depth","Permeability, mD","Porosity, fraction" "Pressure, Psi","Water Saturation","Gas Saturation"
ZONE i =   6, j =   2, k =   2, DATAPACKING = BLOCK,
SOLUTIONTIME = 0.0
VARLOCATION=([4,5,6,7,8]=CELLCENTERED)

  0.0000E+00  3.0000E+02  6.0000E+02  9.0000E+02  1.2000E+03  1.5000E+03  0.0000E+00  3.0000E+02
  6.0000E+02  9.0000E+02  1.2000E+03  1.5000E+03  0.0000E+00  3.0000E+02  6.0000E+02  9.0000E+02
  1.2000E+03  1.5000E+03  0.0000E+00  3.0000E+02  6.0000E+02  9.0000E+02  1.2000E+03  1.5000E+03


  0.0000E+00  0.0000E+00  0.0000E+00  0.0000E+00  0.0000E+00  0.0000E+00  5.0000E+02  5.0000E+02
  5.0000E+02  5.0000E+02  5.0000E+02  5.0000E+02  0.0000E+00  0.0000E+00  0.0000E+00  0.0000E+00
  0.0000E+00  0.0000E+00  5.0000E+02  5.0000E+02  5.0000E+02  5.0000E+02  5.0000E+02  5.0000E+02


  1.2450E+04  1.2450E+04  1.2450E+04  1.2450E+04  1.2450E+04  1.2450E+04  1.2450E+04  1.2450E+04
  1.2450E+04  1.2450E+04  1.2450E+04  1.2450E+04  1.2550E+04  1.2550E+04  1.2550E+04  1.2550E+04
  1.2550E+04  1.2550E+04  1.2550E+04  1.2550E+04  1.2550E+04  1.2550E+04  1.2550E+04  1.2550E+04


  6.0000E+01  6.0000E+01  6.0000E+01  6.0000E+01  6.0000E+01


  2.0000E-01  2.0000E-01  2.0000E-01  2.0000E-01  2.0000E-01


